369901 IMALATHANE NHYNK 644 731000
369902 FABRIKA HNPVOBGD 673 2302000
369903 FABRIKA TXCOTSRGXSYV 579 3149000
369904 VILLA OGNBUIT 451 2987000
369905 BOSTAN KEDVMBFGRVTGS 400 3344000
369906 DAIRE EYXQHHE 71 2156000
369907 BINA XSWTUXOVQWO 751 465000
369908 ATOLYE HVOZYENQCTUDUU 637 6900000
369909 AMBAR XMOEWXPDHKTP 667 2499000
369910 BAG HQKDVV 931 3964000
369911 EV WOFMJLGAHVF 790 8028000
369912 CAYIR DNACNGSNA 480 1203000
369913 MERA ITKBHYFAYJR 806 640000
369914 ZEYTINLIK JCNVTPG 833 1746000
369915 CAYIR ZWSM 530 8199000
369916 MERA OAPUOG 581 1067000
369917 ARAZI HHIGRWZUCWJI 381 3426000
369918 BINA DPDTNA 933 4724000
369919 ARAZI HAUP 391 5898000
369920 IMALATHANE TNDZUED 912 1716000
369921 FIDANLIK UNLDNKMVQ 741 2101000
369922 VILLA RWYUOADC 717 6222000
369923 TARLA TFVVRTXCUA 573 4844000
369924 DUKKAN BOARPW 173 3847000
369925 FABRIKA RBZMIT 550 1742000
369926 DAIRE UWAQXQ 665 1157000
369927 AMBAR WJVOTXBHYNHJ 766 9778000
369928 ZEYTINLIK SXLKG 296 2271000
369929 ZEYTINLIK TQOAQHXICW 795 9588000
369930 IMALATHANE HXKTDPFSCXEVG 268 9573000
369931 TARLA VGCD 100 1272000
369932 CAYIR FRMST 733 4736000
369933 FIDANLIK ZJJBNC 449 6606000
369934 ZEYTINLIK UAYHUYZKJVQWNR 73 9688000
369935 DAIRE YDHRY 891 918000
369936 MERA RFNVMKMA 338 2216000
369937 AMBAR KCW 437 1506000
369938 MERA CJLCPBYXPNOSWM 390 4447000
369939 BINA CTGK 270 4968000
369940 IMALATHANE INMPCDTN 223 2641000
369941 BAHCE BEHRRV 579 9601000
369942 ATOLYE ZSNAWKGNHKI 518 5204000
369943 ARAZI OFOMMZDUMEVUB 44 182000
369944 ZEYTINLIK DWNHOMSTDKU 36 1918000
369945 BAHCE QBQOMZDYR 604 2135000
369946 BOSTAN FVFM 581 3290000
369947 DUKKAN DFESK 367 6793000
369948 BAHCE NUJBSRBBLY 386 2996000
369949 BINA ZKOIHJXSZLGBOQ 812 1119000
369950 EV QKRVNOZ 527 8521000
369951 ZEYTINLIK DHL 340 9088000
369952 ATOLYE SKMQGJ 937 5577000
369953 ATOLYE MUQQZB 707 7729000
369954 BINA MIGMJFE 356 5147000
369955 FIDANLIK RNAOUB 839 4216000
369956 MERA YFMI 40 8384000
369957 VILLA RJBCB 761 6125000
369958 BAG APEATEEK 601 4742000
369959 VILLA WDVUHS 518 6750000
369960 IMALATHANE TSYW 456 4325000
369961 FIDANLIK XUSVQYM 478 7208000
369962 ZEYTINLIK WLUPK 56 812000
369963 TARLA HMLEACPSFAGKIZ 123 9970000
369964 DAIRE UKJSWWHPOD 168 3582000
369965 CAYIR QHAR 470 9354000
369966 ARAZI DXXJ 657 164000
369967 EV HYFT 954 5116000
369968 BOSTAN FVSHT 501 2867000
369969 BOSTAN XDYUYCWYDWZ 220 5843000
369970 VILLA CWQKKERASPA 563 4681000
369971 BAG HDS 827 1778000
369972 FABRIKA QZDVYLLLT 527 6803000
369973 BAHCE JDCREO 332 3320000
369974 EV LFZIJPREU 593 5210000
369975 ZEYTINLIK KGHNAJKZXY 355 6380000
369976 BOSTAN JAST 148 9129000
369977 ZEYTINLIK HXL 622 1035000
369978 AMBAR IVUCZS 155 2373000
369979 BINA FAGEXZV 876 1956000
369980 VILLA FDMPTGX 313 5353000
369981 BINA BGMALRLKTV 602 6742000
369982 TARLA MHWOPHIDAWW 451 1737000
369983 FIDANLIK LQVTWOIUXIOCY 304 3673000
369984 TARLA UYMHIWOCB 166 4538000
369985 ATOLYE CDIVBHGV 551 4625000
369986 DAIRE JSJKU 808 4238000
369987 AMBAR IUZBRWOOOBWEZ 514 3034000
369988 ZEYTINLIK MPM 159 973000
369989 VILLA BRVQ 305 6599000
369990 VILLA SXJ 273 7998000
369991 EV VVOEM 517 424000
369992 AMBAR AKXJCHDMPR 894 3883000
369993 EV TUMNBPBIC 236 5252000
369994 VILLA BQEXP 276 9693000
369995 FIDANLIK FKUBV 97 9848000
369996 AMBAR NDLTV 560 1942000
369997 BINA OSOJCKGZTK 326 7862000
369998 BAG YPABD 163 5770000
369999 ARAZI PNTPT 405 7394000
370000 DAIRE LHYHBZJV 73 2714000
